                         Program Version 6.0.1  -  RELEASE   -
|  1> ! PBE Def2-TZVP TightSCF D3BJ
|  2>
|  3> %pal
|  4>     nprocs 10
|  5> end
|  6> ! ENGRAD
|  7> ! Angs NoUseSym
|  8> %pointcharges "ptchrg.xyz"
|  9> *xyzfile 0 1 inpfile.xyz
| 10>
| 11>                          ****END OF INPUT****

CARTESIAN COORDINATES (ANGSTROEM)
---------------------------------
  Zn    -0.400879    0.322627    1.222824
  C     -1.042431   -1.034186   -1.145471
  N     -1.558463   -2.071311   -1.633930
  N     -1.524453   -0.753370    0.095334
  C     -2.380569   -2.713046   -0.597454
  C     -2.314372   -1.900699    0.509721
  C     -0.458527   -0.028289   -1.869535
  H     -2.491661   -3.774524   -0.774130
  H     -2.647032   -1.897831    1.539100
  H      0.434776    0.439424   -1.439515
  H     -0.126045   -0.502378   -2.800315
  H     -1.118961    0.724695   -2.315064
  C     -0.322343    2.642138    2.119960
  N      0.462425    3.397741    2.800315
  N      0.176341    1.999590    1.073946
  C      1.745773    3.048052    2.235432
  C      1.655913    2.161386    1.193111
  C     -1.774441    2.744485    2.060266
  H      2.647032    3.302290    2.777084
  H      2.281540    1.470894    0.643473
  H     -1.957327    2.596059    0.989664
  H     -2.383244    1.941113    2.491091
  H     -1.928257    3.774524    2.402340

 Total Charge           Charge          ....    0
 Multiplicity           Mult            ....    1
 Number of Electrons    NEL             ....  116
 Basis Dimension        Dim             ....  480

ORBITAL ENERGIES
----------------

  NO   OCC          E(Eh)            E(eV)
   0   2.0000    -345.822648     -9410.3127
   1   2.0000     -41.770296     -1136.6275
   2   2.0000     -36.840063     -1002.4691
   3   2.0000     -36.837802     -1002.4075
   4   2.0000     -36.834191     -1002.3093
   5   2.0000     -14.086246      -383.3062
   6   2.0000     -14.076809      -383.0494
   7   2.0000     -14.049210      -382.2984
   8   2.0000     -14.020915      -381.5285
   9   2.0000     -10.009750      -272.3792
  10   2.0000      -9.991704      -271.8881
  11   2.0000      -9.986345      -271.7423
  12   2.0000      -9.981409      -271.6080
  13   2.0000      -9.981225      -271.6029
  14   2.0000      -9.966754      -271.2092
  15   2.0000      -9.965576      -271.1771
  16   2.0000      -9.949819      -270.7483
  17   2.0000      -4.738068      -128.9294
  18   2.0000      -3.174155       -86.3732
  19   2.0000      -3.170547       -86.2750
  20   2.0000      -3.167098       -86.1811
  21   2.0000      -1.003054       -27.2945
  22   2.0000      -0.976373       -26.5685
  23   2.0000      -0.858325       -23.3562
  24   2.0000      -0.823399       -22.4058
  25   2.0000      -0.796370       -21.6703
  26   2.0000      -0.787341       -21.4246
  27   2.0000      -0.706844       -19.2342
  28   2.0000      -0.694742       -18.9049
  29   2.0000      -0.621072       -16.9002
  30   2.0000      -0.605062       -16.4646
  31   2.0000      -0.582373       -15.8472
  32   2.0000      -0.560054       -15.2398
  33   2.0000      -0.551154       -14.9977
  34   2.0000      -0.544348       -14.8125
  35   2.0000      -0.535054       -14.5596
  36   2.0000      -0.531928       -14.4745
  37   2.0000      -0.526520       -14.3273
  38   2.0000      -0.514092       -13.9892
  39   2.0000      -0.507422       -13.8077
  40   2.0000      -0.499550       -13.5934
  41   2.0000      -0.481210       -13.0944
  42   2.0000      -0.475996       -12.9525
  43   2.0000      -0.460551       -12.5322
  44   2.0000      -0.438136       -11.9223
  45   2.0000      -0.434476       -11.8227
  46   2.0000      -0.425895       -11.5892
  47   2.0000      -0.421966       -11.4823
  48   2.0000      -0.404046       -10.9946
  49   2.0000      -0.399645       -10.8749
  50   2.0000      -0.391574       -10.6553
  51   2.0000      -0.368136       -10.0175
  52   2.0000      -0.330534        -8.9943
  53   2.0000      -0.316322        -8.6076
  54   2.0000      -0.300118        -8.1666
  55   2.0000      -0.292562        -7.9610
  56   2.0000      -0.281467        -7.6591
  57   2.0000      -0.273114        -7.4318
  58   0.0000      -0.186710        -5.0806
  59   0.0000      -0.114498        -3.1156
  60   0.0000      -0.104222        -2.8360
  61   0.0000      -0.084253        -2.2926
  62   0.0000      -0.074550        -2.0286

MULLIKEN ATOMIC CHARGES
-----------------------
   0 Zn:    0.256595
   1 C :    0.118247
   2 N :   -0.160023
   3 N :   -0.004456
   4 C :   -0.084933
   5 C :   -0.128856
   6 C :   -0.370358
   7 H :    0.115944
   8 H :    0.090447
   9 H :    0.139807
  10 H :    0.148158
  11 H :    0.020657
  12 C :    0.014019
  13 N :   -0.200692
  14 N :   -0.015454
  15 C :   -0.165236
  16 C :   -0.122979
  17 C :   -0.358601
  18 H :    0.095877
  19 H :    0.195949
  20 H :    0.174891
  21 H :    0.116725
  22 H :    0.124272
Sum of atomic charges:   -0.0000000

LOEWDIN ATOMIC CHARGES
----------------------
   0 Zn:    0.521556
   1 C :   -0.486215
   2 N :    0.156494
   3 N :    0.108305
   4 C :   -0.211395
   5 C :   -0.232518
   6 C :   -0.265096
   7 H :    0.133956
   8 H :    0.123970
   9 H :    0.151435
  10 H :    0.162950
  11 H :    0.117105
  12 C :   -0.493225
  13 N :    0.102403
  14 N :    0.078134
  15 C :   -0.258715
  16 C :   -0.173619
  17 C :   -0.262343
  18 H :    0.121590
  19 H :    0.154092
  20 H :    0.167062
  21 H :    0.136935
  22 H :    0.147140

  Mayer bond orders larger than 0.100000
B(  0-Zn,  3-N ) :   0.9111 B(  0-Zn, 14-N ) :   0.8962 B(  1-C ,  2-N ) :   1.7573
B(  1-C ,  3-N ) :   1.1500 B(  1-C ,  6-C ) :   0.9981 B(  2-N ,  4-C ) :   1.2269
B(  3-N ,  5-C ) :   1.1202 B(  4-C ,  5-C ) :   1.6478 B(  4-C ,  7-H ) :   0.9645
B(  5-C ,  8-H ) :   0.9591 B(  6-C ,  9-H ) :   0.9373 B(  6-C , 10-H ) :   0.9680
B(  6-C , 11-H ) :   0.9786 B( 12-C , 13-N ) :   1.7895 B( 12-C , 14-N ) :   1.1779
B( 12-C , 17-C ) :   0.9406 B( 13-N , 15-C ) :   1.2367 B( 14-N , 16-C ) :   1.0521
B( 15-C , 16-C ) :   1.6606 B( 15-C , 18-H ) :   0.9822 B( 16-C , 19-H ) :   0.9368
B( 17-C , 20-H ) :   0.9754 B( 17-C , 21-H ) :   0.9300 B( 17-C , 22-H ) :   0.9627

Dispersion correction           -0.026199309
FINAL SINGLE POINT ENERGY     -2308.508172875726
Dispersion correction             ... done (  0.0 sec)

DIPOLE MOMENT
-------------

Method             : SCF
Type of density    : Electron Density
Multiplicity       :   1
Irrep              :   0
Energy             : -2308.4819735670184855 Eh
Relativity type    :
Basis              : AO
                                X                 Y                 Z
Electronic contribution:      3.130377896      -4.726904507       6.462937266
Nuclear contribution   :     -2.403136640       3.575649091      -6.113457707
                        -----------------------------------------
Total Dipole Moment    :      0.727241256      -1.151255417       0.349479559
                        -----------------------------------------
Magnitude (a.u.)       :      1.405846663
Magnitude (Debye)      :      3.573378237

Rotational constants in cm-1:             0.060612             0.012968             0.011919
Rotational constants in MHz :          1817.098138           388.779287           357.313352

                             ****ORCA TERMINATED NORMALLY****
TOTAL RUN TIME: 0 days 0 hours 0 minutes 23 seconds 272 msec
